82
Lattice="10.26352039 0.0 0.0 5.131760195000001 8.88846938999957 0.0 0.0 0.0 28.42012931" Properties=species:S:1:pos:R:3:spacegroup_kinds:I:1:forces:R:3 spacegroup="P 1" unit_cell=conventional occupancy="_JSON {\"0\": {\"Cu\": 1.0}, \"1\": {\"Cu\": 1.0}, \"2\": {\"Cu\": 1.0}, \"3\": {\"Cu\": 1.0}, \"4\": {\"Cu\": 1.0}, \"5\": {\"Cu\": 1.0}, \"6\": {\"Cu\": 1.0}, \"7\": {\"Cu\": 1.0}, \"8\": {\"Cu\": 1.0}, \"9\": {\"Cu\": 1.0}, \"10\": {\"Cu\": 1.0}, \"11\": {\"Cu\": 1.0}, \"12\": {\"Cu\": 1.0}, \"13\": {\"Cu\": 1.0}, \"14\": {\"Cu\": 1.0}, \"15\": {\"Cu\": 1.0}, \"16\": {\"Cu\": 1.0}, \"17\": {\"Cu\": 1.0}, \"18\": {\"Cu\": 1.0}, \"19\": {\"Cu\": 1.0}, \"20\": {\"Cu\": 1.0}, \"21\": {\"Cu\": 1.0}, \"22\": {\"Cu\": 1.0}, \"23\": {\"Cu\": 1.0}, \"24\": {\"Cu\": 1.0}, \"25\": {\"Cu\": 1.0}, \"26\": {\"Cu\": 1.0}, \"27\": {\"Cu\": 1.0}, \"28\": {\"Cu\": 1.0}, \"29\": {\"Cu\": 1.0}, \"30\": {\"Cu\": 1.0}, \"31\": {\"Cu\": 1.0}, \"32\": {\"Cu\": 1.0}, \"33\": {\"Cu\": 1.0}, \"34\": {\"Cu\": 1.0}, \"35\": {\"Cu\": 1.0}, \"36\": {\"Cu\": 1.0}, \"37\": {\"Cu\": 1.0}, \"38\": {\"Cu\": 1.0}, \"39\": {\"Cu\": 1.0}, \"40\": {\"Cu\": 1.0}, \"41\": {\"Cu\": 1.0}, \"42\": {\"Cu\": 1.0}, \"43\": {\"Cu\": 1.0}, \"44\": {\"Cu\": 1.0}, \"45\": {\"Cu\": 1.0}, \"46\": {\"Cu\": 1.0}, \"47\": {\"Cu\": 1.0}, \"48\": {\"Cu\": 1.0}, \"49\": {\"Cu\": 1.0}, \"50\": {\"Cu\": 1.0}, \"51\": {\"Cu\": 1.0}, \"52\": {\"Cu\": 1.0}, \"53\": {\"Cu\": 1.0}, \"54\": {\"Cu\": 1.0}, \"55\": {\"Cu\": 1.0}, \"56\": {\"Cu\": 1.0}, \"57\": {\"Cu\": 1.0}, \"58\": {\"Cu\": 1.0}, \"59\": {\"Cu\": 1.0}, \"60\": {\"Cu\": 1.0}, \"61\": {\"Cu\": 1.0}, \"62\": {\"Cu\": 1.0}, \"63\": {\"Cu\": 1.0}, \"64\": {\"Cu\": 1.0}, \"65\": {\"Cu\": 1.0}, \"66\": {\"Cu\": 1.0}, \"67\": {\"Cu\": 1.0}, \"68\": {\"Cu\": 1.0}, \"69\": {\"Cu\": 1.0}, \"70\": {\"Cu\": 1.0}, \"71\": {\"Cu\": 1.0}, \"72\": {\"Cu\": 1.0}, \"73\": {\"Cu\": 1.0}, \"74\": {\"Cu\": 1.0}, \"75\": {\"Cu\": 1.0}, \"76\": {\"Cu\": 1.0}, \"77\": {\"Cu\": 1.0}, \"78\": {\"Cu\": 1.0}, \"79\": {\"Cu\": 1.0}, \"80\": {\"C\": 1.0}, \"81\": {\"O\": 1.0}}" charge=0 spin=1 energy=-305.77045965607067 free_energy=-305.77045965607067 stress="0.006851227022707462 6.176733347018626e-09 -2.5405892944974084e-09 6.176733347018626e-09 0.006851234473288059 1.2371830226953762e-09 -2.5405892944974084e-09 1.2371830226953762e-09 -9.268893336411566e-06" pbc="T T T"
Cu       0.00026401       0.00017262       0.40290502        0      -0.00013049      -0.00008094      -0.00266991
Cu       1.28463768       2.22114964       0.39988039        1      -0.00158389       0.00085688       0.00091166
Cu       2.56586918       0.00195368       0.39988029        2       0.00004849      -0.00179984       0.00091172
Cu       3.84713358       2.22113090       0.39988036        3       0.00153352       0.00094313       0.00091148
Cu       5.12803929       2.96094511       2.45839254        4       0.00312126       0.00179476       0.00355267
Cu       3.84991284       0.74002703       2.46825834        5      -0.00084266       0.00055543       0.00288336
Cu       2.56592159       2.96410862       2.46825833        6      -0.00006079      -0.00100981       0.00288323
Cu       1.28180621       0.74009866       2.46825834        7       0.00089882       0.00045407       0.00288249
Cu       2.56588010       1.48141148       4.53953155        8       0.00000119      -0.00000015       0.00321185
Cu       3.85214238       3.70700432       4.54839220        9      -0.00317986      -0.00128582      -0.00059148
Cu       5.13628459       1.48311263       4.54816759       10      -0.00277550      -0.00191930      -0.00072512
Cu       6.40936422       3.70044900       4.53083336       11      -0.00169054      -0.00086708       0.00116325
Cu       0.00028787      -0.00032640       6.62233428       12      -0.00023724      -0.00003393      -0.00933036
Cu       1.28165865       2.22275889       6.61330805       13       0.00285825      -0.00179738      -0.00285004
Cu       2.56596507      -0.00143039       6.61330811       14       0.00012930       0.00337585      -0.00285058
Cu       3.85001670       2.22290594       6.61330807       15      -0.00299127      -0.00157522      -0.00284823
Cu       5.10821566       2.95130827       8.67839997       16      -0.00621011      -0.00366332       0.00062731
Cu       3.84803707       0.74150637       8.68035563       17      -0.00281812       0.00145164       0.00006491
Cu       2.56557827       2.96174477       8.68035561       18       0.00015375      -0.00316708       0.00006305
Cu       1.28402513       0.74098320       8.68035515       19       0.00266518       0.00171691       0.00006689
Cu       2.56589752       4.44391929       0.40290518       20      -0.00000442       0.00015496      -0.00267125
Cu       3.84869979       6.66649830       0.40321998       21       0.00066304      -0.00036916      -0.00319316
Cu       5.13048089       4.44421301       0.39671503       22       0.00183478       0.00011780       0.00035683
Cu       6.41422251       6.66757686       0.39692029       23       0.00090045      -0.00163724       0.00031532
Cu       7.69787447       7.41121932       2.45839239       24      -0.00000591      -0.00360145       0.00355261
Cu       6.41406556       5.18521359       2.45726409       25       0.00188223      -0.00107879       0.00523371
Cu       5.13248000       7.40641349       2.46587048       26       0.00128011      -0.00007965      -0.00081854
Cu       3.84958699       5.18468106       2.46584339       27       0.00073933      -0.00105160      -0.00085495
Cu       5.13522441       5.92315041       4.54674193       28      -0.00247233       0.00150758      -0.00320084
Cu       6.41391136       8.14299490       4.54816729       29      -0.00027530       0.00336659      -0.00072475
Cu       7.69764093       5.93180738       4.53083336       30       0.00009471       0.00189403       0.00116164
Cu       8.98192907       8.14314885       4.54839205       31       0.00047754       0.00339845      -0.00058933
Cu       2.56545351       4.44414885       6.62233424       32       0.00008742       0.00022237      -0.00932606
Cu       3.84763316       6.66635016       6.61902595       33       0.00246932      -0.00133396      -0.00471672
Cu       5.14851564       4.44840549       6.63823589       34       0.00026146       0.00388321       0.00657680
Cu       6.41879752       6.64915283       6.63722359       35      -0.00337512      -0.00212657       0.00670029
Cu       7.69944045       7.43320554       8.67839999       36      -0.00006638       0.00720761       0.00062589
Cu       6.40796878       5.18917771       8.75711155       37      -0.00829660       0.00464192       0.00197839
Cu       5.13131095       7.40647934       8.67995683       38      -0.00352878       0.00017088       0.00060242
Cu       3.84689039       5.18558702       8.68205517       39      -0.00188313       0.00308375       0.00039850
Cu       5.13147836       0.00014228       0.40290518       40       0.00013787      -0.00007236      -0.00267185
Cu       6.41387841       2.22109106       0.39692029       41       0.00096841       0.00160128       0.00031552
Cu       7.69757402      -0.00017707       0.40321996       42      -0.00001340       0.00075646      -0.00319180
Cu       8.98123845       2.22102008       0.39671501       43      -0.00101702       0.00153063       0.00035609
Cu      10.26700713       2.96053967       2.45839233       44      -0.00311610       0.00180501       0.00355431
Cu       8.98042138       0.74149950       2.46584329       45       0.00054265       0.00116615      -0.00085357
Cu       7.69772098       2.96213698       2.45726409       46      -0.00000653       0.00216533       0.00523408
Cu       6.41489832       0.74165127       2.46587058       47      -0.00057027       0.00114942      -0.00081952
Cu       7.69806975       1.48565965       4.54674202       48      -0.00007115      -0.00289368      -0.00320043
Cu       8.98591528       3.70044788       4.53083330       49       0.00159744      -0.00103124       0.00116131
Cu      10.25884923       1.48255078       4.54839229       50       0.00270401      -0.00210864      -0.00059243
Cu      11.54272488       3.70659646       4.54816766       51       0.00305208      -0.00144497      -0.00072446
Cu       5.13189893       0.00041242       6.62233442       52       0.00015054      -0.00018756      -0.00932858
Cu       6.42754673       2.23426553       6.63722351       53       0.00353324      -0.00186133       0.00670047
Cu       7.69823545      -0.00102701       6.61902586       54      -0.00008421       0.00280494      -0.00471474
Cu       8.96859053       2.23454239       6.63823587       55      -0.00349285      -0.00171435       0.00657723
Cu      10.28526497       2.94819036       8.67839998       56       0.00627536      -0.00354686       0.00062527
Cu       8.98098576       0.73871098       8.68205521       57      -0.00173009      -0.00317381       0.00039811
Cu       7.69733650       2.95487491       8.75711147       58       0.00012971      -0.00950656       0.00197761
Cu       6.41542605       0.74060572       8.67995673       59       0.00161471      -0.00314168       0.00059971
Cu       7.69764028       4.44423464       0.39417733       60       0.00000014      -0.00000136      -0.00087790
Cu       8.98120138       6.66747089       0.39671500       61      -0.00081400      -0.00164658       0.00035689
Cu      10.26481990       4.44403610       0.39692030       62      -0.00187228       0.00003800       0.00031522
Cu      11.54664721       6.66638317       0.40321990       63      -0.00064998      -0.00038854      -0.00319094
Cu      12.82940056       7.40705800       2.46597437       64      -0.00000393       0.00000217      -0.00012043
Cu      11.54554265       5.18463909       2.46587064       65      -0.00071133      -0.00106689      -0.00082007
Cu      10.26291239       7.40652363       2.46584343       66      -0.00128003      -0.00011497      -0.00085481
Cu       8.98113416       5.18535367       2.45726415       67      -0.00187250      -0.00109202       0.00523348
Cu      10.25962630       5.92389402       4.54674197       68       0.00254374       0.00138493      -0.00320129
Cu      11.54633151       8.14832758       4.54322920       69      -0.00127305       0.00056673      -0.00398224
Cu      12.82897636       5.92525290       4.54322918       70       0.00014282      -0.00138825      -0.00398390
Cu      14.11289294       8.14759355       4.54322895       71       0.00113117       0.00081934      -0.00398441
Cu       7.69764033       4.44423476       6.58416809       72      -0.00000041      -0.00000032       0.00237076
Cu       8.97581440       6.64975620       6.63823614       73       0.00323124      -0.00216937       0.00657730
Cu      10.24657675       4.44928594       6.63722372       74      -0.00014989       0.00399012       0.00670089
Cu      11.54705236       6.66738118       6.61902614       75      -0.00239375      -0.00147551      -0.00471547
Cu      12.82940023       7.40705794       8.68219179       76       0.00000243       0.00000146      -0.00110857
Cu      11.54618423       5.18561907       8.67995699       77       0.00191034       0.00296943       0.00059503
Cu      10.26504503       7.40840634       8.68205527       78       0.00361220       0.00008807       0.00039837
Cu       8.98761586       5.18865154       8.75711115       79       0.00816933       0.00486614       0.00197932
C        7.69764018       4.44423452      10.15559438       80       0.00000151       0.00000402       0.00268796
O        7.69764033       4.44423446      11.34244530       81      -0.00000003      -0.00000220      -0.00145253
